This is a multi-thread run using 4 threads
/fs/project/PAS0291/herbert/qchem-trunk/build/qcprog.exe .test.in.172097.qcin.1 /tmp/qchem172097/

                  Welcome to Q-Chem
     A Quantum Leap Into The Future Of Chemistry


 Q-Chem 6.0 (devel), Q-Chem, Inc., Pleasanton, CA (2022)

 E. Epifanovsky,  A. T. B. Gilbert,  Xintian Feng,  Joonho Lee,  Yuezhi Mao,
 N. Mardirossian,  P. Pokhilko,  A. White,  M. Wormit,  M. P. Coons,
 A. L. Dempwolff,  Zhengting Gan,  D. Hait,  P. R. Horn,  L. D. Jacobson,
 I. Kaliman,  J. Kussmann,  A. W. Lange,  Ka Un Lao,  D. S. Levine,  Jie Liu,
 S. C. McKenzie,  A. F. Morrison,  K. Nanda,  F. Plasser,  D. R. Rehn,
 M. L. Vidal,  Zhi-Qiang You,  Ying Zhu,  B. Alam,  B. Albrecht,
 A. Aldossary,  E. Alguire,  J. H. Andersen,  V. Athavale,  D. Barton,
 K. Begam,  A. Behn,  N. Bellonzi,  Y. A. Bernard,  E. J. Berquist,
 H. Burton,  A. Carreras,  K. Carter-Fenk,  Romit Chakraborty,
 Chandrima Chakravarty,  Junhan Chen,  A. D. Chien,  K. D. Closser,
 V. Cofer-Shabica,  L. Cunha,  S. Dasgupta,  Jia Deng,  M. de Wergifosse,
 M. Diedenhofen,  Hainam Do,  S. Ehlert,  Po-Tung Fang,  S. Fatehi,
 Qingguo Feng,  T. Friedhoff,  B. Ganoe,  J. Gayvert,  Qinghui Ge,
 G. Gidofalvi,  M. Goldey,  J. Gomes,  C. Gonzalez-Espinoza,  S. Gulania,
 A. Gunina,  J. A. Gyamfi,  M. W. D. Hanson-Heine,  P. H. P. Harbach,
 A. W. Hauser,  M. F. Herbst,  M. Hernandez Vera,  M. Hodecker,
 Z. C. Holden,  S. Houck,  Xunkun Huang,  Kerwin Hui,  B. C. Huynh,
 K. Ikeda,  M. Ivanov,  Hyunjun Ji,  Zuxin Jin,  Hanjie Jiang,  B. Kaduk,
 S. Kaehler,  R. Kang,  K. Khistyaev,  Jaehoon Kim,  Yongbin Kim,
 P. Klunzinger,  Z. Koczor-Benda,  Joong Hoon Koh,  D. Kosenkov,
 Saikiran Kotaru,  L. Koulias,  T. Kowalczyk,  C. M. Krauter,  K. Kue,
 A. Kunitsa,  T. Kus,  A. Landau,  K. V. Lawler,  D. Lefrancois,  S. Lehtola,
 Rain Li,  Shaozhi Li,  Yi-Pei Li,  Jiashu Liang,  M. Liebenthal,
 Hung-Hsuan Lin,  You-Sheng Lin,  Fenglai Liu,  Kuan-Yu Liu,
 M. Loipersberger,  A. Luenser,  C. Malbon,  A. Manjanath,  P. Manohar,
 E. Mansoor,  S. F. Manzer,  Shan-Ping Mao,  A. V. Marenich,  T. Markovich,
 S. Mason,  F. Matz,  S. A. Maurer,  P. F. McLaughlin,  M. F. S. J. Menger,
 J.-M. Mewes,  S. A. Mewes,  P. Morgante,  Mohammad Mostafanejad,
 J. W. Mullinax,  K. J. Oosterbaan,  G. Paran,  V. Parravicini,
 Alexander C. Paul,  Suranjan K. Paul,  F. Pavosevic,  Zheng Pei,  S. Prager,
 E. I. Proynov,  E. Ramos,  B. Rana,  A. E. Rask,  A. Rettig,  R. M. Richard,
 F. Rob,  E. Rossomme,  T. Scheele,  M. Scheurer,  M. Schneider,
 P. E. Schneider,  N. Sergueev,  S. M. Sharada,  Hengyuan Shen,
 W. Skomorowski,  D. W. Small,  C. J. Stein,  Yingli Su,  Yu-Chuan Su,
 E. J. Sundstrom,  Zhen Tao,  J. Thirman,  Hung-Yi Tsai,  T. Tsuchimochi,
 N. M. Tubman,  C. Utku,  S. P. Veccham,  O. Vydrov,  J. Wenzel,
 Jonathan Wong,  J. Witte,  A. Yamada,  Chou-Hsun Yang,  Kun Yao,
 S. Yeganeh,  S. R. Yost,  A. Zech,  F. Zeller,  Igor Ying Zhang,
 Xing Zhang,  Yu Zhang,  D. Zuev,  A. Aspuru-Guzik,  A. T. Bell,
 N. A. Besley,  K. B. Bravaya,  B. R. Brooks,  D. Casanova,  Jeng-Da Chai,
 Hsing-Ta Chen,  S. Coriani,  C. J. Cramer,  A. E. DePrince, III,
 R. A. DiStasio Jr.,  A. Dreuw,  B. D. Dunietz,  T. R. Furlani,
 W. A. Goddard III,  S. Grimme,  S. Hammes-Schiffer,  T. Head-Gordon,
 W. J. Hehre,  Chao-Ping Hsu,  T.-C. Jagau,  Yousung Jung,  A. Klamt,
 Jing Kong,  D. S. Lambrecht,  Xiangyuan Li,  WanZhen Liang,  N. J. Mayhall,
 C. W. McCurdy,  J. B. Neaton,  T. Neudecker,  C. Ochsenfeld,
 J. A. Parkhill,  R. Peverati,  V. A. Rassolov,  Haisheng Ren,  Yihan Shao,
 L. V. Slipchenko,  R. P. Steele,  J. E. Subotnik,  A. J. W. Thom,
 A. Tkatchenko,  D. G. Truhlar,  T. Van Voorhis,  Fan Wang,
 T. A. Wesolowski,  K. B. Whaley,  H. L. Woodcock III,  P. M. Zimmerman,
 S. Faraji,  P. M. W. Gill,  M. Head-Gordon,  J. M. Herbert,  A. I. Krylov

 Contributors to earlier versions of Q-Chem not listed above:
 R. D. Adamson,  B. Austin,  R. Baer,  J. Baker,  G. J. O. Beran,
 K. Brandhorst,  S. T. Brown,  E. F. C. Byrd,  Arup K. Chakraborty,
 G. K. L. Chan,  Chun-Min Chang,  Yunqing Chen,  C.-L. Cheng,
 Siu Hung Chien,  D. M. Chipman,  D. L. Crittenden,  H. Dachsel,
 R. J. Doerksen,  A. D. Dutoi,  R. G. Edgar,  J. Fosso-Tande,
 L. Fusti-Molnar,  D. Ghosh,  A. Ghysels,  A. Golubeva-Zadorozhnaya,
 J. Gonthier,  M. S. Gordon,  S. R. Gwaltney,  G. Hawkins,  J. E. Herr,
 A. Heyden,  S. Hirata,  E. G. Hohenstein,  G. Kedziora,  F. J. Keil,
 C. Kelley,  Jihan Kim,  R. A. King,  R. Z. Khaliullin,  P. P. Korambath,
 W. Kurlancheek,  A. Laurent,  A. M. Lee,  M. S. Lee,  S. V. Levchenko,
 Ching Yeh Lin,  D. Liotard,  E. Livshits,  R. C. Lochan,  I. Lotan,
 L. A. Martinez-Martinez,  P. E. Maslen,  N. Nair,  D. P. O'Neill,
 D. Neuhauser,  E. Neuscamman,  C. M. Oana,  R. Olivares-Amaya,  R. Olson,
 T. M. Perrine,  B. Peters,  P. A. Pieniazek,  A. Prociuk,  Y. M. Rhee,
 J. Ritchie,  M. A. Rohrdanz,  E. Rosta,  N. J. Russ,  H. F. Schaefer III,
 M. W. Schmidt,  N. E. Schultz,  S. Sharma,  N. Shenvi,  C. D. Sherrill,
 A. C. Simmonett,  A. Sodt,  T. Stein,  D. Stuck,  K. S. Thanthiriwatte,
 V. Vanovschi,  L. Vogt,  Tao Wang,  A. Warshel,  M. A. Watson,
 C. F. Williams,  Q. Wu,  X. Xu,  Jun Yang,  W. Zhang,  Yan Zhao

   Please cite Q-Chem as follows:
  "Software for the frontiers of quantum chemistry:
   An overview of developments in the Q-Chem 5 package"
   J. Chem. Phys. 155, 084801 (2021)
   https://doi.org/10.1063/5.0055522 (open access)

 Q-Chem 6.0.2 for Intel X86 EM64T Linux

 Parts of Q-Chem use Armadillo 9.900.5 (Nocturnal Misbehaviour).
 http://arma.sourceforge.net/

 Q-Chem begins on Wed Feb  8 09:27:44 2023

 Host: pitzer-login03.hpc.osc.edu
0

     Scratch files written to /tmp/qchem172097//
 Processing $rem in /fs/project/PAS0291/herbert/qchem-trunk/config/preferences:
 Processing $rem in /users/PAS0291/osu10719/.qchemrc:

 Checking the input file for inconsistencies... 	...done.

--------------------------------------------------------------
User input:
--------------------------------------------------------------
$molecule
0 1
O
H  1 0.947269
H  1 0.959213 2 105.865675
O  3 1.884674 1 167.240483 2 -112.547242 0
H  4 0.947197 3 120.610508 1 -133.800703 0
H  4 0.959155 3 102.613929 1 -16.280625 0
H  1 1.900313 2 123.261626 3 -117.796811 0
O  7 0.959059 1 165.991460 2 97.235188 0
H  8 0.947149 7 106.069853 1 -107.222825 0
H  8 1.882989 7 102.046095 1 19.761936 0
O  10 0.959297 8 166.776891 7 27.995751 0
H  11 0.947451 10 105.392378 8 92.336392 0
$end

$rem
          method          hf
          basis           6-31g*
          job_type        force

          scf_final_print true
          gen_scfman      false
          thresh          14
          scf_convergence 8
          sym_ignore      true
          max_scf_cycles  100
	  GEOM_OPT_MAX_CYCLES 200

          mem_total       160000
          mem_static      4000
$end

--------------------------------------------------------------
 ----------------------------------------------------------------
             Standard Nuclear Orientation (Angstroms)
    I     Atom           X                Y                Z
 ----------------------------------------------------------------
    1      O       0.0000000000     0.0000000000     0.0000000000
    2      H       0.0000000000     0.0000000000     0.9472690000
    3      H       0.9226720317     0.0000000000    -0.2622325328
    4      O       2.6471478408     0.3844315763    -0.9182749348
    5      H       3.1174655443    -0.2510444530    -1.4399583931
    6      H       2.4898165091     1.1358441907    -1.4932568902
    7      H      -0.7410073392     1.4056351087    -1.0422511992
    8      O      -0.8926504046     2.1871551862    -1.5770641709
    9      H      -1.3211437399     2.8135423867    -1.0103863394
   10      H       0.8272292940     2.5359868450    -2.2596898885
   11      O       1.7290565094     2.4955238008    -2.5842220902
   12      H       1.6540997866     2.3948478946    -3.5233223240
 ----------------------------------------------------------------
 Nuclear Repulsion Energy =         138.50530341 hartrees
 There are       20 alpha and       20 beta electrons
 Requested basis set is 6-31G(d)
 There are 32 shells and 76 basis functions

 Total QAlloc Memory Limit 160000 MB
 Mega-Array Size      3911 MB
 MEM_STATIC part      4000 MB


                       Distance Matrix (Angstroms)
             O (  1)   H (  2)   H (  3)   O (  4)   H (  5)   H (  6)
   H (  2)  0.947269
   H (  3)  0.959213  1.521255
   O (  4)  2.828146  3.261201  1.884674
   H (  5)  3.443123  3.934523  2.503434  0.947197
   H (  6)  3.117554  3.666810  2.293797  0.959155  1.523235
   H (  7)  1.900313  2.546192  2.313454  3.540879  4.217887  3.273288
   O (  8)  2.840353  3.457272  3.131745  4.026660  4.695173  3.543072
   H (  9)  3.268382  3.673398  3.675658  4.653644  5.410867  4.191808
   H ( 10)  3.495960  4.171345  3.229578  3.121007  3.699282  2.304781
   O ( 11)  3.986914  4.657113  3.502789  2.841651  3.283391  1.902022
   H ( 12)  4.570027  5.334560  4.111568  3.437178  3.671865  2.530747
             H (  7)   O (  8)   H (  9)   H ( 10)   O ( 11)
   O (  8)  0.959059
   H (  9)  1.523081  0.947149
   H ( 10)  2.284561  1.882989  2.500661
   O ( 11)  3.109139  2.825386  3.447001  0.959297
   H ( 12)  3.587589  3.212008  3.916915  1.516708  0.947451

 A cutoff of  1.0D-14 yielded    508 shell pairs
 There are      2982 function pairs
 Smallest overlap matrix eigenvalue = 1.22E-02

 Scale SEOQF with 1.000000e-01/1.000000e-01/1.000000e-01

 Standard Electronic Orientation quadrupole field applied
 Nucleus-field energy     =     0.0000000007 hartrees
 Guess from superposition of atomic densities
 Warning:  Energy on first SCF cycle will be non-variational
 SAD guess density has 40.000000 electrons
 A restricted Hartree-Fock SCF calculation will be
 performed using Pulay DIIS extrapolation
 SCF converges when DIIS error is below 1.0E-08
 using 4 threads for integral computing
 -------------------------------------------------------
 OpenMP Integral computing Module
 Release: version 1.0, May 2013, Q-Chem Inc. Pittsburgh
 -------------------------------------------------------
 ---------------------------------------
  Cycle       Energy         DIIS Error
 ---------------------------------------
    1    -303.8614124228      9.03E-02
    2    -303.9805167261      1.35E-02
    3    -304.0669683810      6.51E-03
    4    -304.0877988745      8.39E-04
    5    -304.0883937765      1.60E-04
    6    -304.0884265589      3.57E-05
    7    -304.0884286801      5.71E-06
    8    -304.0884287321      1.52E-06
    9    -304.0884287342      5.45E-07
   10    -304.0884287345      1.38E-07
   11    -304.0884287345      2.40E-08
   12    -304.0884287345      4.88E-09 Convergence criterion met
 ---------------------------------------
 One-Electron    Energy =  -695.7229525654
 Total Coulomb   Energy =   288.9931360924
 Alpha Exchange  Energy =   -17.9319578377
 Beta  Exchange  Energy =   -17.9319578377
 DFT   Exchange  Energy =     0.0000000000
 DFT Correlation Energy =     0.0000000000
 Nuclear Repu.   Energy =   138.5053034139
 Nuclear Attr.   Energy =  -999.1045641560
 Kinetic         Energy =   303.3816115906
 SCF time:  CPU 9.60 s  wall 2.75 s
 Final Alpha MO Eigenvalues
            1           2           3           4           5           6
    1 -20.5552131 -20.5551998 -20.5537155 -20.5530818  -1.3542757  -1.3434662
            7           8           9          10          11          12
    1  -1.3416470  -1.3310250  -0.7262416  -0.7159010  -0.7130238  -0.7051941
           13          14          15          16          17          18
    1  -0.6045166  -0.5783363  -0.5724887  -0.5470412  -0.5009927  -0.4990449
           19          20          21          22          23          24
    1  -0.4920615  -0.4897890   0.2006611   0.2407986   0.2462430   0.2698993
           25          26          27          28          29          30
    1   0.3796482   0.4311345   0.4380748   0.4681241   1.0023343   1.0092167
           31          32          33          34          35          36
    1   1.0474214   1.0532398   1.1161896   1.1240309   1.1355342   1.1451876
           37          38          39          40          41          42
    1   1.1671745   1.1770423   1.1955118   1.2084266   1.3319232   1.3344439
           43          44          45          46          47          48
    1   1.3361886   1.3745638   1.3786449   1.3872210   1.4222141   1.4497933
           49          50          51          52          53          54
    1   1.6061029   1.6945797   1.7187503   1.7650669   2.0130048   2.0162122
           55          56          57          58          59          60
    1   2.0199115   2.0210119   2.0259863   2.0265057   2.0291018   2.0376200
           61          62          63          64          65          66
    1   2.1204191   2.1304618   2.1396169   2.1420613   2.6642690   2.7107462
           67          68          69          70          71          72
    1   2.7255732   2.7608981   2.9607349   2.9931690   3.0043870   3.0148826
           73          74          75          76
    1   4.0923688   4.2095141   4.2225127   4.2746839
 SCF   energy in the final basis set = -304.08842873
 Total energy in the final basis set = -304.08842873

 --------------------------------------------------------------

                    Orbital Energies (a.u.)
 --------------------------------------------------------------

 Alpha MOs
 -- Occupied --
-20.5552 -20.5552 -20.5537 -20.5531  -1.3543  -1.3435  -1.3416  -1.3310
 -0.7262  -0.7159  -0.7130  -0.7052  -0.6045  -0.5783  -0.5725  -0.5470
 -0.5010  -0.4990  -0.4921  -0.4898
 -- Virtual --
  0.2007   0.2408   0.2462   0.2699   0.3796   0.4311   0.4381   0.4681
  1.0023   1.0092   1.0474   1.0532   1.1162   1.1240   1.1355   1.1452
  1.1672   1.1770   1.1955   1.2084   1.3319   1.3344   1.3362   1.3746
  1.3786   1.3872   1.4222   1.4498   1.6061   1.6946   1.7188   1.7651
  2.0130   2.0162   2.0199   2.0210   2.0260   2.0265   2.0291   2.0376
  2.1204   2.1305   2.1396   2.1421   2.6643   2.7107   2.7256   2.7609
  2.9607   2.9932   3.0044   3.0149   4.0924   4.2095   4.2225   4.2747
 --------------------------------------------------------------

          Ground-State Mulliken Net Atomic Charges

     Atom                 Charge (a.u.)
  ----------------------------------------
      1 O                    -0.947134
      2 H                     0.438112
      3 H                     0.506785
      4 O                    -0.944347
      5 H                     0.438263
      6 H                     0.507505
      7 H                     0.508188
      8 O                    -0.944306
      9 H                     0.438323
     10 H                     0.506412
     11 O                    -0.945771
     12 H                     0.437970
  ----------------------------------------
  Sum of atomic charges =     0.000000

 -----------------------------------------------------------------
                    Cartesian Multipole Moments
 -----------------------------------------------------------------
    Charge (ESU x 10^10)
                -0.0000
    Dipole Moment (Debye)
         X      -0.0349      Y      -0.1875      Z       0.1498
       Tot       0.2425
    Quadrupole Moments (Debye-Ang)
        XX     -26.0232     XY      -7.2561     YY     -25.5015
        XZ      -6.4838     YZ       1.5744     ZZ     -17.3791
    Octopole Moments (Debye-Ang^2)
       XXX     -66.8529    XXY     -46.5573    XYY     -40.2006
       YYY     -96.1403    XXZ      22.3895    XYZ       2.4144
       YYZ      37.3407    XZZ       0.3747    YZZ     -26.5855
       ZZZ      65.1995
    Hexadecapole Moments (Debye-Ang^3)
      XXXX    -417.7815   XXXY    -114.2768   XXYY    -164.1495
      XYYY    -129.6343   YYYY    -447.7949   XXXZ      66.1223
      XXYZ      89.8878   XYYZ      50.7726   YYYZ     217.3356
      XXZZ    -112.8126   XYZZ      -1.0256   YYZZ    -136.4680
      XZZZ      29.1935   YZZZ     132.7509   ZZZZ    -252.6831
 -----------------------------------------------------------------
 Mayer SCF Bond Order, atomic valence on the diagonal:

            1           2           3           4           5           6
    1   1.5271993   0.7819669   0.6641750   0.0002201   0.0011769   0.0016649
    2   0.7819669   0.7806889  -0.0034040   0.0006621   0.0000582   0.0000206
    3   0.6641750  -0.0034040   0.7438832   0.0808701   0.0001094  -0.0001010
    4   0.0002201   0.0006621   0.0808701   1.5325329   0.7814464   0.6658741
    5   0.0011769   0.0000582   0.0001094   0.7814464   0.7806300  -0.0031753
    6   0.0016649   0.0000206  -0.0001010   0.6658741  -0.0031753   0.7424008
    7   0.0759847   0.0001895  -0.0000650   0.0004209   0.0000112   0.0000524
    8   0.0005548   0.0011343   0.0015878  -0.0000592  -0.0000019   0.0004406
    9   0.0009908   0.0000510   0.0000223  -0.0000026   0.0000003   0.0000107
   10   0.0005540   0.0000119   0.0000763   0.0015240   0.0000299  -0.0000866
   11  -0.0000852  -0.0000025   0.0006038   0.0004682   0.0009275   0.0775116
   12  -0.0000036   0.0000007   0.0000086   0.0011087   0.0000473   0.0001886
            7           8           9          10          11          12
    1   0.0759847   0.0005548   0.0009908   0.0005540  -0.0000852  -0.0000036
    2   0.0001895   0.0011343   0.0000510   0.0000119  -0.0000025   0.0000007
    3  -0.0000650   0.0015878   0.0000223   0.0000763   0.0006038   0.0000086
    4   0.0004209  -0.0000592  -0.0000026   0.0015240   0.0004682   0.0011087
    5   0.0000112  -0.0000019   0.0000003   0.0000299   0.0009275   0.0000473
    6   0.0000524   0.0004406   0.0000107  -0.0000866   0.0775116   0.0001886
    7   0.7413906   0.6661560  -0.0031985  -0.0000876   0.0019144   0.0000126
    8   0.6661560   1.5335522   0.7813898   0.0814225   0.0002458   0.0006816
    9  -0.0031985   0.7813898   0.7806277   0.0000920   0.0012093   0.0000624
   10  -0.0000876   0.0814225   0.0000920   0.7445083   0.6646807  -0.0037088
   11   0.0019144   0.0002458   0.0012093   0.6646807   1.5297135   0.7822399
   12   0.0000126   0.0006816   0.0000624  -0.0037088   0.7822399   0.7806380


 Calculating analytic gradient of the SCF energy
 Gradient of SCF Energy
            1           2           3           4           5           6
    1   0.0000254  -0.0001140   0.0000400  -0.0000242   0.0000570   0.0000593
    2   0.0000736   0.0000171  -0.0000550   0.0000212   0.0000765  -0.0001437
    3  -0.0001867   0.0000401   0.0002675  -0.0000259  -0.0000699  -0.0000573
            7           8           9          10          11          12
    1   0.0001755  -0.0001210  -0.0000335  -0.0000573   0.0001621  -0.0001693
    2   0.0000079   0.0001165  -0.0000713   0.0000216   0.0000460  -0.0001104
    3  -0.0002081   0.0001042  -0.0000100   0.0000693   0.0000728   0.0000039
 Max gradient component =       2.675E-04
 RMS gradient           =       1.024E-04
 Gradient time:  CPU 2.15 s  wall 0.74 s
 Total job time:  4.63s(wall), 14.00s(cpu)
 Wed Feb  8 09:27:48 2023

        *************************************************************
        *                                                           *
        *  Thank you very much for using Q-Chem.  Have a nice day.  *
        *                                                           *
        *************************************************************